 Gaussian 09, Revision D.01,
 Gaussian 09:  ES64L-G09RevD.01 24-Apr-2013

 ---------------------------------------
 #P SPL/Gen Pseudo=Read GFPrint pop=Full
 ---------------------------------------

 ---------
 GGG Frag1
 ---------
 Symbolic Z-matrix:
 Charge =  0 Multiplicity = 1

                         Standard orientation:
 ---------------------------------------------------------------------
 Center     Atomic      Atomic             Coordinates (Angstroms)
 Number     Number       Type             X           Y           Z
 ---------------------------------------------------------------------
      1          6           0        0.580107    0.471341    0.411546
      2          1           0        0.618322    0.595674    1.499355
      3          9           0        0.786939    1.650849   -0.204021
      4         17           0        1.850884   -0.689477   -0.067323
      5         35           0       -1.218470   -0.187436   -0.028227
 ---------------------------------------------------------------------

 SCF Done:  E(RS-P81) =  -58.7306172243     A.U. after   12 cycles

 The electronic state is 1-A.
 Alpha  occ. eigenvalues --   -1.15266  -0.83316  -0.76371  -0.62422  -0.51590
 Alpha  occ. eigenvalues --   -0.48237  -0.47067  -0.36347  -0.35712  -0.31236
 Alpha  occ. eigenvalues --   -0.29480  -0.27749  -0.27080
 Alpha virt. eigenvalues --   -0.08670  -0.02865   0.03509   0.08637   0.32220
 Alpha virt. eigenvalues --    0.34239   0.37279   0.39872   0.43283   0.43879
 Alpha virt. eigenvalues --    0.47770   0.49169   0.50820   0.50923   0.52085

 Mulliken charges:
               1
     1  C   -0.080246
     2  H    0.143400
     3  F   -0.099215
     4  Cl   0.014422
     5  Br   0.021638
 Sum of Mulliken charges =   0.00000

 Dipole moment (field-independent basis, Debye):
    X=              0.0635    Y=             -0.0150    Z=              1.2299  Tot=              1.2316
 Quadrupole moment (field-independent basis, Debye-Ang):
   XX=            -37.8093   YY=            -39.1441   ZZ=            -36.6699
   XY=              0.1014   XZ=              1.0118   YZ=              1.2734

 Normal termination of Gaussian 09 at Mon Dec 20 13:53:43 2021.
