 Gaussian 09, Revision D.01,
 Gaussian 09:  ES64L-G09RevD.01 24-Apr-2013

 -------------------------------
 #p cc-pvtz RHF pop=full GFPRINT
 -------------------------------

 ---------
 Thiophene
 ---------
 Symbolic Z-matrix:
 Charge =  0 Multiplicity = 1

                         Standard orientation:
 ---------------------------------------------------------------------
 Center     Atomic      Atomic             Coordinates (Angstroms)
 Number     Number       Type             X           Y           Z
 ---------------------------------------------------------------------
      1          6           0        0.000000    0.711400   -1.266732
      2          6           0        0.000000   -0.711400   -1.266732
      3          6           0        0.000000   -1.238000   -0.009632
      4          6           0        0.000000    1.238000   -0.009632
      5         16           0        0.000000    0.000000    1.192568
      6          1           0        0.000000    1.314300   -2.162632
      7          1           0        0.000000   -1.314300   -2.162632
      8          1           0        0.000000    2.274700    0.280268
      9          1           0        0.000000   -2.274700    0.280268
 ---------------------------------------------------------------------

 SCF Done:  E(RHF) =  -551.379479765     A.U. after   12 cycles

 The electronic state is 1-A1.
 Alpha  occ. eigenvalues --  -91.98092 -11.26035 -11.26032 -11.23668 -11.23566
 Alpha  occ. eigenvalues --   -8.98186  -6.66285  -6.66231  -6.66163  -1.16902
 Alpha  occ. eigenvalues --   -0.98347  -0.98215  -0.76704  -0.74890  -0.69687
 Alpha  occ. eigenvalues --   -0.57618  -0.55085  -0.52488  -0.52146  -0.47182
 Alpha  occ. eigenvalues --   -0.34493  -0.32759
 Alpha virt. eigenvalues --    0.11797   0.15187   0.15698   0.18482   0.18760
 Alpha virt. eigenvalues --    0.20345   0.22409   0.22683   0.33618   0.33754
 Alpha virt. eigenvalues --    0.37585   0.40072   0.40860   0.44645   0.45933

 Mulliken charges:
               1
     1  C   -0.182816
     2  C   -0.182816
     3  C   -0.192213
     4  C   -0.192213
     5  S    0.054073
     6  H    0.171416
     7  H    0.171416
     8  H    0.176576
     9  H    0.176576
 Sum of Mulliken charges =   0.00000

 Dipole moment (field-independent basis, Debye):
    X=              0.0000    Y=              0.0000    Z=             -0.7755  Tot=              0.7755
 Quadrupole moment (field-independent basis, Debye-Ang):
   XX=            -40.9342   YY=            -31.3162   ZZ=            -35.0593
   XY=              0.0000   XZ=              0.0000   YZ=              0.0000

 Normal termination of Gaussian 09 at Fri Feb  4 00:59:46 2022.
